+ 0 /NodeList/3/DeviceList/0/$ns3::LrWpanNetDevice/Mac/MacTxEnqueue ns3::LrWpanMacHeader (  Frame Type = 1, Sec Enable = 0, Frame Pending = 0, Ack Request = 0, PAN ID Compress = 0, Frame Vers = 1, Dst Addrs Mode = 2, Src Addr Mode = 2, Sequence Num = 33, Dst Addr Pan ID = 10, m_addrShortDstAddr = ff:ff, Src Addr Pan ID = 10, m_addrShortSrcAddr = 00:04) ns3::SixLowPanIphc (Compression kind: 31499) ns3::Icmpv6NS (( type = 135 (NS) code = 0 target = 2001:1::ff:fe00:4 checksum = 38489)) ns3::Icmpv6OptionLinkLayerAddress (( type = 1 length = 1 L2 Address = 00-06-00:04:00:00:00:00)) ns3::LrWpanMacTrailer ( FCS = 0)
+ 0 /NodeList/4/DeviceList/0/$ns3::LrWpanNetDevice/Mac/MacTxEnqueue ns3::LrWpanMacHeader (  Frame Type = 1, Sec Enable = 0, Frame Pending = 0, Ack Request = 0, PAN ID Compress = 0, Frame Vers = 1, Dst Addrs Mode = 2, Src Addr Mode = 2, Sequence Num = 141, Dst Addr Pan ID = 10, m_addrShortDstAddr = ff:ff, Src Addr Pan ID = 10, m_addrShortSrcAddr = 00:05) ns3::SixLowPanIphc (Compression kind: 31499) ns3::Icmpv6NS (( type = 135 (NS) code = 0 target = fe80::ff:fe00:5 checksum = 5499)) ns3::Icmpv6OptionLinkLayerAddress (( type = 1 length = 1 L2 Address = 00-06-00:05:00:00:00:00)) ns3::LrWpanMacTrailer ( FCS = 0)
+ 0 /NodeList/8/DeviceList/0/$ns3::LrWpanNetDevice/Mac/MacTxEnqueue ns3::LrWpanMacHeader (  Frame Type = 1, Sec Enable = 0, Frame Pending = 0, Ack Request = 0, PAN ID Compress = 0, Frame Vers = 1, Dst Addrs Mode = 2, Src Addr Mode = 2, Sequence Num = 236, Dst Addr Pan ID = 10, m_addrShortDstAddr = ff:ff, Src Addr Pan ID = 10, m_addrShortSrcAddr = 00:09) ns3::SixLowPanIphc (Compression kind: 31499) ns3::Icmpv6NS (( type = 135 (NS) code = 0 target = fe80::ff:fe00:9 checksum = 3451)) ns3::Icmpv6OptionLinkLayerAddress (( type = 1 length = 1 L2 Address = 00-06-00:09:00:00:00:00)) ns3::LrWpanMacTrailer ( FCS = 0)
+ 0 /NodeList/12/DeviceList/0/$ns3::LrWpanNetDevice/Mac/MacTxEnqueue ns3::LrWpanMacHeader (  Frame Type = 1, Sec Enable = 0, Frame Pending = 0, Ack Request = 0, PAN ID Compress = 0, Frame Vers = 1, Dst Addrs Mode = 2, Src Addr Mode = 2, Sequence Num = 60, Dst Addr Pan ID = 10, m_addrShortDstAddr = ff:ff, Src Addr Pan ID = 10, m_addrShortSrcAddr = 00:0d) ns3::SixLowPanIphc (Compression kind: 31499) ns3::Icmpv6NS (( type = 135 (NS) code = 0 target = 2001:1::ff:fe00:d checksum = 33881)) ns3::Icmpv6OptionLinkLayerAddress (( type = 1 length = 1 L2 Address = 00-06-00:0d:00:00:00:00)) ns3::LrWpanMacTrailer ( FCS = 0)
+ 0 /NodeList/13/DeviceList/0/$ns3::LrWpanNetDevice/Mac/MacTxEnqueue ns3::LrWpanMacHeader (  Frame Type = 1, Sec Enable = 0, Frame Pending = 0, Ack Request = 0, PAN ID Compress = 0, Frame Vers = 1, Dst Addrs Mode = 2, Src Addr Mode = 2, Sequence Num = 134, Dst Addr Pan ID = 10, m_addrShortDstAddr = ff:ff, Src Addr Pan ID = 10, m_addrShortSrcAddr = 00:0e) ns3::SixLowPanIphc (Compression kind: 31499) ns3::Icmpv6NS (( type = 135 (NS) code = 0 target = 2001:1::ff:fe00:e checksum = 33369)) ns3::Icmpv6OptionLinkLayerAddress (( type = 1 length = 1 L2 Address = 00-06-00:0e:00:00:00:00)) ns3::LrWpanMacTrailer ( FCS = 0)
+ 0 /NodeList/15/DeviceList/0/$ns3::LrWpanNetDevice/Mac/MacTxEnqueue ns3::LrWpanMacHeader (  Frame Type = 1, Sec Enable = 0, Frame Pending = 0, Ack Request = 0, PAN ID Compress = 0, Frame Vers = 1, Dst Addrs Mode = 2, Src Addr Mode = 2, Sequence Num = 15, Dst Addr Pan ID = 10, m_addrShortDstAddr = ff:ff, Src Addr Pan ID = 10, m_addrShortSrcAddr = 00:10) ns3::SixLowPanIphc (Compression kind: 31499) ns3::Icmpv6NS (( type = 135 (NS) code = 0 target = fe80::ff:fe00:10 checksum = 65402)) ns3::Icmpv6OptionLinkLayerAddress (( type = 1 length = 1 L2 Address = 00-06-00:10:00:00:00:00)) ns3::LrWpanMacTrailer ( FCS = 0)
+ 0 /NodeList/23/DeviceList/0/$ns3::LrWpanNetDevice/Mac/MacTxEnqueue ns3::LrWpanMacHeader (  Frame Type = 1, Sec Enable = 0, Frame Pending = 0, Ack Request = 0, PAN ID Compress = 0, Frame Vers = 1, Dst Addrs Mode = 2, Src Addr Mode = 2, Sequence Num = 76, Dst Addr Pan ID = 10, m_addrShortDstAddr = ff:ff, Src Addr Pan ID = 10, m_addrShortSrcAddr = 00:18) ns3::SixLowPanIphc (Compression kind: 31499) ns3::Icmpv6NS (( type = 135 (NS) code = 0 target = 2001:1::ff:fe00:18 checksum = 28249)) ns3::Icmpv6OptionLinkLayerAddress (( type = 1 length = 1 L2 Address = 00-06-00:18:00:00:00:00)) ns3::LrWpanMacTrailer ( FCS = 0)
+ 0 /NodeList/24/DeviceList/0/$ns3::LrWpanNetDevice/Mac/MacTxEnqueue ns3::LrWpanMacHeader (  Frame Type = 1, Sec Enable = 0, Frame Pending = 0, Ack Request = 0, PAN ID Compress = 0, Frame Vers = 1, Dst Addrs Mode = 2, Src Addr Mode = 2, Sequence Num = 173, Dst Addr Pan ID = 10, m_addrShortDstAddr = ff:ff, Src Addr Pan ID = 10, m_addrShortSrcAddr = 00:19) ns3::SixLowPanIphc (Compression kind: 31499) ns3::Icmpv6NS (( type = 135 (NS) code = 0 target = 2001:1::ff:fe00:19 checksum = 27737)) ns3::Icmpv6OptionLinkLayerAddress (( type = 1 length = 1 L2 Address = 00-06-00:19:00:00:00:00)) ns3::LrWpanMacTrailer ( FCS = 0)
+ 0 /NodeList/31/DeviceList/0/$ns3::LrWpanNetDevice/Mac/MacTxEnqueue ns3::LrWpanMacHeader (  Frame Type = 1, Sec Enable = 0, Frame Pending = 0, Ack Request = 0, PAN ID Compress = 0, Frame Vers = 1, Dst Addrs Mode = 2, Src Addr Mode = 2, Sequence Num = 68, Dst Addr Pan ID = 10, m_addrShortDstAddr = ff:ff, Src Addr Pan ID = 10, m_addrShortSrcAddr = 00:20) ns3::SixLowPanIphc (Compression kind: 31499) ns3::Icmpv6NS (( type = 135 (NS) code = 0 target = fe80::ff:fe00:20 checksum = 57210)) ns3::Icmpv6OptionLinkLayerAddress (( type = 1 length = 1 L2 Address = 00-06-00:20:00:00:00:00)) ns3::LrWpanMacTrailer ( FCS = 0)
+ 0 /NodeList/32/DeviceList/0/$ns3::LrWpanNetDevice/Mac/MacTxEnqueue ns3::LrWpanMacHeader (  Frame Type = 1, Sec Enable = 0, Frame Pending = 0, Ack Request = 0, PAN ID Compress = 0, Frame Vers = 1, Dst Addrs Mode = 2, Src Addr Mode = 2, Sequence Num = 113, Dst Addr Pan ID = 10, m_addrShortDstAddr = ff:ff, Src Addr Pan ID = 10, m_addrShortSrcAddr = 00:21) ns3::SixLowPanIphc (Compression kind: 31499) ns3::Icmpv6NS (( type = 135 (NS) code = 0 target = 2001:1::ff:fe00:21 checksum = 23641)) ns3::Icmpv6OptionLinkLayerAddress (( type = 1 length = 1 L2 Address = 00-06-00:21:00:00:00:00)) ns3::LrWpanMacTrailer ( FCS = 0)
+ 0 /NodeList/35/DeviceList/0/$ns3::LrWpanNetDevice/Mac/MacTxEnqueue ns3::LrWpanMacHeader (  Frame Type = 1, Sec Enable = 0, Frame Pending = 0, Ack Request = 0, PAN ID Compress = 0, Frame Vers = 1, Dst Addrs Mode = 2, Src Addr Mode = 2, Sequence Num = 230, Dst Addr Pan ID = 10, m_addrShortDstAddr = ff:ff, Src Addr Pan ID = 10, m_addrShortSrcAddr = 00:24) ns3::SixLowPanIphc (Compression kind: 31499) ns3::Icmpv6NS (( type = 135 (NS) code = 0 target = fe80::ff:fe00:24 checksum = 55162)) ns3::Icmpv6OptionLinkLayerAddress (( type = 1 length = 1 L2 Address = 00-06-00:24:00:00:00:00)) ns3::LrWpanMacTrailer ( FCS = 0)
+ 0 /NodeList/40/DeviceList/0/$ns3::LrWpanNetDevice/Mac/MacTxEnqueue ns3::LrWpanMacHeader (  Frame Type = 1, Sec Enable = 0, Frame Pending = 0, Ack Request = 0, PAN ID Compress = 0, Frame Vers = 1, Dst Addrs Mode = 2, Src Addr Mode = 2, Sequence Num = 24, Dst Addr Pan ID = 10, m_addrShortDstAddr = ff:ff, Src Addr Pan ID = 10, m_addrShortSrcAddr = 00:29) ns3::SixLowPanIphc (Compression kind: 31499) ns3::Icmpv6NS (( type = 135 (NS) code = 0 target = 2001:1::ff:fe00:29 checksum = 19545)) ns3::Icmpv6OptionLinkLayerAddress (( type = 1 length = 1 L2 Address = 00-06-00:29:00:00:00:00)) ns3::LrWpanMacTrailer ( FCS = 0)
+ 0 /NodeList/46/DeviceList/0/$ns3::LrWpanNetDevice/Mac/MacTxEnqueue ns3::LrWpanMacHeader (  Frame Type = 1, Sec Enable = 0, Frame Pending = 0, Ack Request = 0, PAN ID Compress = 0, Frame Vers = 1, Dst Addrs Mode = 2, Src Addr Mode = 2, Sequence Num = 185, Dst Addr Pan ID = 10, m_addrShortDstAddr = ff:ff, Src Addr Pan ID = 10, m_addrShortSrcAddr = 00:2f) ns3::SixLowPanIphc (Compression kind: 31499) ns3::Icmpv6NS (( type = 135 (NS) code = 0 target = 2001:1::ff:fe00:2f checksum = 16473)) ns3::Icmpv6OptionLinkLayerAddress (( type = 1 length = 1 L2 Address = 00-06-00:2f:00:00:00:00)) ns3::LrWpanMacTrailer ( FCS = 0)
t 0.000512 /NodeList/12/DeviceList/0/$ns3::LrWpanNetDevice/Mac/MacTx ns3::LrWpanMacHeader (  Frame Type = 1, Sec Enable = 0, Frame Pending = 0, Ack Request = 0, PAN ID Compress = 0, Frame Vers = 1, Dst Addrs Mode = 2, Src Addr Mode = 2, Sequence Num = 60, Dst Addr Pan ID = 10, m_addrShortDstAddr = ff:ff, Src Addr Pan ID = 10, m_addrShortSrcAddr = 00:0d) ns3::SixLowPanIphc (Compression kind: 31499) ns3::Icmpv6NS (( type = 135 (NS) code = 0 target = 2001:1::ff:fe00:d checksum = 33881)) ns3::Icmpv6OptionLinkLayerAddress (( type = 1 length = 1 L2 Address = 00-06-00:0d:00:00:00:00)) ns3::LrWpanMacTrailer ( FCS = 0)
t 0.000512 /NodeList/32/DeviceList/0/$ns3::LrWpanNetDevice/Mac/MacTx ns3::LrWpanMacHeader (  Frame Type = 1, Sec Enable = 0, Frame Pending = 0, Ack Request = 0, PAN ID Compress = 0, Frame Vers = 1, Dst Addrs Mode = 2, Src Addr Mode = 2, Sequence Num = 113, Dst Addr Pan ID = 10, m_addrShortDstAddr = ff:ff, Src Addr Pan ID = 10, m_addrShortSrcAddr = 00:21) ns3::SixLowPanIphc (Compression kind: 31499) ns3::Icmpv6NS (( type = 135 (NS) code = 0 target = 2001:1::ff:fe00:21 checksum = 23641)) ns3::Icmpv6OptionLinkLayerAddress (( type = 1 length = 1 L2 Address = 00-06-00:21:00:00:00:00)) ns3::LrWpanMacTrailer ( FCS = 0)
+ 0.001 /NodeList/0/DeviceList/0/$ns3::LrWpanNetDevice/Mac/MacTxEnqueue ns3::LrWpanMacHeader (  Frame Type = 1, Sec Enable = 0, Frame Pending = 0, Ack Request = 0, PAN ID Compress = 0, Frame Vers = 1, Dst Addrs Mode = 2, Src Addr Mode = 2, Sequence Num = 26, Dst Addr Pan ID = 10, m_addrShortDstAddr = ff:ff, Src Addr Pan ID = 10, m_addrShortSrcAddr = 00:01) ns3::SixLowPanIphc (Compression kind: 31499) ns3::Icmpv6NS (( type = 135 (NS) code = 0 target = 2001:1::ff:fe00:1 checksum = 40025)) ns3::Icmpv6OptionLinkLayerAddress (( type = 1 length = 1 L2 Address = 00-06-00:01:00:00:00:00)) ns3::LrWpanMacTrailer ( FCS = 0)
+ 0.001 /NodeList/7/DeviceList/0/$ns3::LrWpanNetDevice/Mac/MacTxEnqueue ns3::LrWpanMacHeader (  Frame Type = 1, Sec Enable = 0, Frame Pending = 0, Ack Request = 0, PAN ID Compress = 0, Frame Vers = 1, Dst Addrs Mode = 2, Src Addr Mode = 2, Sequence Num = 200, Dst Addr Pan ID = 10, m_addrShortDstAddr = ff:ff, Src Addr Pan ID = 10, m_addrShortSrcAddr = 00:08) ns3::SixLowPanIphc (Compression kind: 31499) ns3::Icmpv6NS (( type = 135 (NS) code = 0 target = fe80::ff:fe00:8 checksum = 3963)) ns3::Icmpv6OptionLinkLayerAddress (( type = 1 length = 1 L2 Address = 00-06-00:08:00:00:00:00)) ns3::LrWpanMacTrailer ( FCS = 0)
+ 0.001 /NodeList/26/DeviceList/0/$ns3::LrWpanNetDevice/Mac/MacTxEnqueue ns3::LrWpanMacHeader (  Frame Type = 1, Sec Enable = 0, Frame Pending = 0, Ack Request = 0, PAN ID Compress = 0, Frame Vers = 1, Dst Addrs Mode = 2, Src Addr Mode = 2, Sequence Num = 10, Dst Addr Pan ID = 10, m_addrShortDstAddr = ff:ff, Src Addr Pan ID = 10, m_addrShortSrcAddr = 00:1b) ns3::SixLowPanIphc (Compression kind: 31499) ns3::Icmpv6NS (( type = 135 (NS) code = 0 target = fe80::ff:fe00:1b checksum = 59770)) ns3::Icmpv6OptionLinkLayerAddress (( type = 1 length = 1 L2 Address = 00-06-00:1b:00:00:00:00)) ns3::LrWpanMacTrailer ( FCS = 0)
+ 0.001 /NodeList/28/DeviceList/0/$ns3::LrWpanNetDevice/Mac/MacTxEnqueue ns3::LrWpanMacHeader (  Frame Type = 1, Sec Enable = 0, Frame Pending = 0, Ack Request = 0, PAN ID Compress = 0, Frame Vers = 1, Dst Addrs Mode = 2, Src Addr Mode = 2, Sequence Num = 101, Dst Addr Pan ID = 10, m_addrShortDstAddr = ff:ff, Src Addr Pan ID = 10, m_addrShortSrcAddr = 00:1d) ns3::SixLowPanIphc (Compression kind: 31499) ns3::Icmpv6NS (( type = 135 (NS) code = 0 target = fe80::ff:fe00:1d checksum = 58746)) ns3::Icmpv6OptionLinkLayerAddress (( type = 1 length = 1 L2 Address = 00-06-00:1d:00:00:00:00)) ns3::LrWpanMacTrailer ( FCS = 0)
+ 0.001 /NodeList/32/DeviceList/0/$ns3::LrWpanNetDevice/Mac/MacTxEnqueue ns3::LrWpanMacHeader (  Frame Type = 1, Sec Enable = 0, Frame Pending = 0, Ack Request = 0, PAN ID Compress = 0, Frame Vers = 1, Dst Addrs Mode = 2, Src Addr Mode = 2, Sequence Num = 114, Dst Addr Pan ID = 10, m_addrShortDstAddr = ff:ff, Src Addr Pan ID = 10, m_addrShortSrcAddr = 00:21) ns3::SixLowPanIphc (Compression kind: 31499) ns3::Icmpv6NS (( type = 135 (NS) code = 0 target = fe80::ff:fe00:21 checksum = 56698)) ns3::Icmpv6OptionLinkLayerAddress (( type = 1 length = 1 L2 Address = 00-06-00:21:00:00:00:00)) ns3::LrWpanMacTrailer ( FCS = 0)
+ 0.001 /NodeList/33/DeviceList/0/$ns3::LrWpanNetDevice/Mac/MacTxEnqueue ns3::LrWpanMacHeader (  Frame Type = 1, Sec Enable = 0, Frame Pending = 0, Ack Request = 0, PAN ID Compress = 0, Frame Vers = 1, Dst Addrs Mode = 2, Src Addr Mode = 2, Sequence Num = 101, Dst Addr Pan ID = 10, m_addrShortDstAddr = ff:ff, Src Addr Pan ID = 10, m_addrShortSrcAddr = 00:22) ns3::SixLowPanIphc (Compression kind: 31499) ns3::Icmpv6NS (( type = 135 (NS) code = 0 target = fe80::ff:fe00:22 checksum = 56186)) ns3::Icmpv6OptionLinkLayerAddress (( type = 1 length = 1 L2 Address = 00-06-00:22:00:00:00:00)) ns3::LrWpanMacTrailer ( FCS = 0)
+ 0.001 /NodeList/45/DeviceList/0/$ns3::LrWpanNetDevice/Mac/MacTxEnqueue ns3::LrWpanMacHeader (  Frame Type = 1, Sec Enable = 0, Frame Pending = 0, Ack Request = 0, PAN ID Compress = 0, Frame Vers = 1, Dst Addrs Mode = 2, Src Addr Mode = 2, Sequence Num = 189, Dst Addr Pan ID = 10, m_addrShortDstAddr = ff:ff, Src Addr Pan ID = 10, m_addrShortSrcAddr = 00:2e) ns3::SixLowPanIphc (Compression kind: 31499) ns3::Icmpv6NS (( type = 135 (NS) code = 0 target = 2001:1::ff:fe00:2e checksum = 16985)) ns3::Icmpv6OptionLinkLayerAddress (( type = 1 length = 1 L2 Address = 00-06-00:2e:00:00:00:00)) ns3::LrWpanMacTrailer ( FCS = 0)
+ 0.001 /NodeList/48/DeviceList/0/$ns3::LrWpanNetDevice/Mac/MacTxEnqueue ns3::LrWpanMacHeader (  Frame Type = 1, Sec Enable = 0, Frame Pending = 0, Ack Request = 0, PAN ID Compress = 0, Frame Vers = 1, Dst Addrs Mode = 2, Src Addr Mode = 2, Sequence Num = 193, Dst Addr Pan ID = 10, m_addrShortDstAddr = ff:ff, Src Addr Pan ID = 10, m_addrShortSrcAddr = 00:31) ns3::SixLowPanIphc (Compression kind: 31499) ns3::Icmpv6NS (( type = 135 (NS) code = 0 target = fe80::ff:fe00:31 checksum = 48506)) ns3::Icmpv6OptionLinkLayerAddress (( type = 1 length = 1 L2 Address = 00-06-00:31:00:00:00:00)) ns3::LrWpanMacTrailer ( FCS = 0)
+ 0.002 /NodeList/11/DeviceList/0/$ns3::LrWpanNetDevice/Mac/MacTxEnqueue ns3::LrWpanMacHeader (  Frame Type = 1, Sec Enable = 0, Frame Pending = 0, Ack Request = 0, PAN ID Compress = 0, Frame Vers = 1, Dst Addrs Mode = 2, Src Addr Mode = 2, Sequence Num = 96, Dst Addr Pan ID = 10, m_addrShortDstAddr = ff:ff, Src Addr Pan ID = 10, m_addrShortSrcAddr = 00:0c) ns3::SixLowPanIphc (Compression kind: 31499) ns3::Icmpv6NS (( type = 135 (NS) code = 0 target = fe80::ff:fe00:c checksum = 1915)) ns3::Icmpv6OptionLinkLayerAddress (( type = 1 length = 1 L2 Address = 00-06-00:0c:00:00:00:00)) ns3::LrWpanMacTrailer ( FCS = 0)
+ 0.002 /NodeList/16/DeviceList/0/$ns3::LrWpanNetDevice/Mac/MacTxEnqueue ns3::LrWpanMacHeader (  Frame Type = 1, Sec Enable = 0, Frame Pending = 0, Ack Request = 0, PAN ID Compress = 0, Frame Vers = 1, Dst Addrs Mode = 2, Src Addr Mode = 2, Sequence Num = 138, Dst Addr Pan ID = 10, m_addrShortDstAddr = ff:ff, Src Addr Pan ID = 10, m_addrShortSrcAddr = 00:11) ns3::SixLowPanIphc (Compression kind: 31499) ns3::Icmpv6NS (( type = 135 (NS) code = 0 target = 2001:1::ff:fe00:11 checksum = 31833)) ns3::Icmpv6OptionLinkLayerAddress (( type = 1 length = 1 L2 Address = 00-06-00:11:00:00:00:00)) ns3::LrWpanMacTrailer ( FCS = 0)
+ 0.002 /NodeList/17/DeviceList/0/$ns3::LrWpanNetDevice/Mac/MacTxEnqueue ns3::LrWpanMacHeader (  Frame Type = 1, Sec Enable = 0, Frame Pending = 0, Ack Request = 0, PAN ID Compress = 0, Frame Vers = 1, Dst Addrs Mode = 2, Src Addr Mode = 2, Sequence Num = 184, Dst Addr Pan ID = 10, m_addrShortDstAddr = ff:ff, Src Addr Pan ID = 10, m_addrShortSrcAddr = 00:12) ns3::SixLowPanIphc (Compression kind: 31499) ns3::Icmpv6NS (( type = 135 (NS) code = 0 target = fe80::ff:fe00:12 checksum = 64378)) ns3::Icmpv6OptionLinkLayerAddress (( type = 1 length = 1 L2 Address = 00-06-00:12:00:00:00:00)) ns3::LrWpanMacTrailer ( FCS = 0)
+ 0.002 /NodeList/19/DeviceList/0/$ns3::LrWpanNetDevice/Mac/MacTxEnqueue ns3::LrWpanMacHeader (  Frame Type = 1, Sec Enable = 0, Frame Pending = 0, Ack Request = 0, PAN ID Compress = 0, Frame Vers = 1, Dst Addrs Mode = 2, Src Addr Mode = 2, Sequence Num = 243, Dst Addr Pan ID = 10, m_addrShortDstAddr = ff:ff, Src Addr Pan ID = 10, m_addrShortSrcAddr = 00:14) ns3::SixLowPanIphc (Compression kind: 31499) ns3::Icmpv6NS (( type = 135 (NS) code = 0 target = 2001:1::ff:fe00:14 checksum = 30297)) ns3::Icmpv6OptionLinkLayerAddress (( type = 1 length = 1 L2 Address = 00-06-00:14:00:00:00:00)) ns3::LrWpanMacTrailer ( FCS = 0)
+ 0.002 /NodeList/20/DeviceList/0/$ns3::LrWpanNetDevice/Mac/MacTxEnqueue ns3::LrWpanMacHeader (  Frame Type = 1, Sec Enable = 0, Frame Pending = 0, Ack Request = 0, PAN ID Compress = 0, Frame Vers = 1, Dst Addrs Mode = 2, Src Addr Mode = 2, Sequence Num = 13, Dst Addr Pan ID = 10, m_addrShortDstAddr = ff:ff, Src Addr Pan ID = 10, m_addrShortSrcAddr = 00:15) ns3::SixLowPanIphc (Compression kind: 31499) ns3::Icmpv6NS (( type = 135 (NS) code = 0 target = fe80::ff:fe00:15 checksum = 62842)) ns3::Icmpv6OptionLinkLayerAddress (( type = 1 length = 1 L2 Address = 00-06-00:15:00:00:00:00)) ns3::LrWpanMacTrailer ( FCS = 0)
+ 0.002 /NodeList/21/DeviceList/0/$ns3::LrWpanNetDevice/Mac/MacTxEnqueue ns3::LrWpanMacHeader (  Frame Type = 1, Sec Enable = 0, Frame Pending = 0, Ack Request = 0, PAN ID Compress = 0, Frame Vers = 1, Dst Addrs Mode = 2, Src Addr Mode = 2, Sequence Num = 74, Dst Addr Pan ID = 10, m_addrShortDstAddr = ff:ff, Src Addr Pan ID = 10, m_addrShortSrcAddr = 00:16) ns3::SixLowPanIphc (Compression kind: 31499) ns3::Icmpv6NS (( type = 135 (NS) code = 0 target = 2001:1::ff:fe00:16 checksum = 29273)) ns3::Icmpv6OptionLinkLayerAddress (( type = 1 length = 1 L2 Address = 00-06-00:16:00:00:00:00)) ns3::LrWpanMacTrailer ( FCS = 0)
+ 0.002 /NodeList/36/DeviceList/0/$ns3::LrWpanNetDevice/Mac/MacTxEnqueue ns3::LrWpanMacHeader (  Frame Type = 1, Sec Enable = 0, Frame Pending = 0, Ack Request = 0, PAN ID Compress = 0, Frame Vers = 1, Dst Addrs Mode = 2, Src Addr Mode = 2, Sequence Num = 112, Dst Addr Pan ID = 10, m_addrShortDstAddr = ff:ff, Src Addr Pan ID = 10, m_addrShortSrcAddr = 00:25) ns3::SixLowPanIphc (Compression kind: 31499) ns3::Icmpv6NS (( type = 135 (NS) code = 0 target = fe80::ff:fe00:25 checksum = 54650)) ns3::Icmpv6OptionLinkLayerAddress (( type = 1 length = 1 L2 Address = 00-06-00:25:00:00:00:00)) ns3::LrWpanMacTrailer ( FCS = 0)
+ 0.002 /NodeList/40/DeviceList/0/$ns3::LrWpanNetDevice/Mac/MacTxEnqueue ns3::LrWpanMacHeader (  Frame Type = 1, Sec Enable = 0, Frame Pending = 0, Ack Request = 0, PAN ID Compress = 0, Frame Vers = 1, Dst Addrs Mode = 2, Src Addr Mode = 2, Sequence Num = 25, Dst Addr Pan ID = 10, m_addrShortDstAddr = ff:ff, Src Addr Pan ID = 10, m_addrShortSrcAddr = 00:29) ns3::SixLowPanIphc (Compression kind: 31499) ns3::Icmpv6NS (( type = 135 (NS) code = 0 target = fe80::ff:fe00:29 checksum = 52602)) ns3::Icmpv6OptionLinkLayerAddress (( type = 1 length = 1 L2 Address = 00-06-00:29:00:00:00:00)) ns3::LrWpanMacTrailer ( FCS = 0)
+ 0.002 /NodeList/42/DeviceList/0/$ns3::LrWpanNetDevice/Mac/MacTxEnqueue ns3::LrWpanMacHeader (  Frame Type = 1, Sec Enable = 0, Frame Pending = 0, Ack Request = 0, PAN ID Compress = 0, Frame Vers = 1, Dst Addrs Mode = 2, Src Addr Mode = 2, Sequence Num = 161, Dst Addr Pan ID = 10, m_addrShortDstAddr = ff:ff, Src Addr Pan ID = 10, m_addrShortSrcAddr = 00:2b) ns3::SixLowPanIphc (Compression kind: 31499) ns3::Icmpv6NS (( type = 135 (NS) code = 0 target = fe80::ff:fe00:2b checksum = 51578)) ns3::Icmpv6OptionLinkLayerAddress (( type = 1 length = 1 L2 Address = 00-06-00:2b:00:00:00:00)) ns3::LrWpanMacTrailer ( FCS = 0)
t 0.002112 /NodeList/46/DeviceList/0/$ns3::LrWpanNetDevice/Mac/MacTx ns3::LrWpanMacHeader (  Frame Type = 1, Sec Enable = 0, Frame Pending = 0, Ack Request = 0, PAN ID Compress = 0, Frame Vers = 1, Dst Addrs Mode = 2, Src Addr Mode = 2, Sequence Num = 185, Dst Addr Pan ID = 10, m_addrShortDstAddr = ff:ff, Src Addr Pan ID = 10, m_addrShortSrcAddr = 00:2f) ns3::SixLowPanIphc (Compression kind: 31499) ns3::Icmpv6NS (( type = 135 (NS) code = 0 target = 2001:1::ff:fe00:2f checksum = 16473)) ns3::Icmpv6OptionLinkLayerAddress (( type = 1 length = 1 L2 Address = 00-06-00:2f:00:00:00:00)) ns3::LrWpanMacTrailer ( FCS = 0)
t 0.00228 /NodeList/48/DeviceList/0/$ns3::LrWpanNetDevice/Mac/MacTx ns3::LrWpanMacHeader (  Frame Type = 1, Sec Enable = 0, Frame Pending = 0, Ack Request = 0, PAN ID Compress = 0, Frame Vers = 1, Dst Addrs Mode = 2, Src Addr Mode = 2, Sequence Num = 193, Dst Addr Pan ID = 10, m_addrShortDstAddr = ff:ff, Src Addr Pan ID = 10, m_addrShortSrcAddr = 00:31) ns3::SixLowPanIphc (Compression kind: 31499) ns3::Icmpv6NS (( type = 135 (NS) code = 0 target = fe80::ff:fe00:31 checksum = 48506)) ns3::Icmpv6OptionLinkLayerAddress (( type = 1 length = 1 L2 Address = 00-06-00:31:00:00:00:00)) ns3::LrWpanMacTrailer ( FCS = 0)
- 0.002784 /NodeList/12/DeviceList/0/$ns3::LrWpanNetDevice/Mac/MacTxDequeue ns3::LrWpanMacHeader (  Frame Type = 1, Sec Enable = 0, Frame Pending = 0, Ack Request = 0, PAN ID Compress = 0, Frame Vers = 1, Dst Addrs Mode = 2, Src Addr Mode = 2, Sequence Num = 60, Dst Addr Pan ID = 10, m_addrShortDstAddr = ff:ff, Src Addr Pan ID = 10, m_addrShortSrcAddr = 00:0d) ns3::SixLowPanIphc (Compression kind: 31499) ns3::Icmpv6NS (( type = 135 (NS) code = 0 target = 2001:1::ff:fe00:d checksum = 33881)) ns3::Icmpv6OptionLinkLayerAddress (( type = 1 length = 1 L2 Address = 00-06-00:0d:00:00:00:00)) ns3::LrWpanMacTrailer ( FCS = 0)
- 0.002784 /NodeList/32/DeviceList/0/$ns3::LrWpanNetDevice/Mac/MacTxDequeue ns3::LrWpanMacHeader (  Frame Type = 1, Sec Enable = 0, Frame Pending = 0, Ack Request = 0, PAN ID Compress = 0, Frame Vers = 1, Dst Addrs Mode = 2, Src Addr Mode = 2, Sequence Num = 113, Dst Addr Pan ID = 10, m_addrShortDstAddr = ff:ff, Src Addr Pan ID = 10, m_addrShortSrcAddr = 00:21) ns3::SixLowPanIphc (Compression kind: 31499) ns3::Icmpv6NS (( type = 135 (NS) code = 0 target = 2001:1::ff:fe00:21 checksum = 23641)) ns3::Icmpv6OptionLinkLayerAddress (( type = 1 length = 1 L2 Address = 00-06-00:21:00:00:00:00)) ns3::LrWpanMacTrailer ( FCS = 0)
r 0.00278416 /NodeList/7/DeviceList/0/$ns3::LrWpanNetDevice/Mac/MacRx ns3::LrWpanMacHeader (  Frame Type = 1, Sec Enable = 0, Frame Pending = 0, Ack Request = 0, PAN ID Compress = 0, Frame Vers = 1, Dst Addrs Mode = 2, Src Addr Mode = 2, Sequence Num = 60, Dst Addr Pan ID = 10, m_addrShortDstAddr = ff:ff, Src Addr Pan ID = 10, m_addrShortSrcAddr = 00:0d) ns3::SixLowPanIphc (Compression kind: 31499) ns3::Icmpv6NS (( type = 135 (NS) code = 0 target = 2001:1::ff:fe00:d checksum = 33881)) ns3::Icmpv6OptionLinkLayerAddress (( type = 1 length = 1 L2 Address = 00-06-00:0d:00:00:00:00)) ns3::LrWpanMacTrailer ( FCS = 0)
r 0.00278416 /NodeList/11/DeviceList/0/$ns3::LrWpanNetDevice/Mac/MacRx ns3::LrWpanMacHeader (  Frame Type = 1, Sec Enable = 0, Frame Pending = 0, Ack Request = 0, PAN ID Compress = 0, Frame Vers = 1, Dst Addrs Mode = 2, Src Addr Mode = 2, Sequence Num = 60, Dst Addr Pan ID = 10, m_addrShortDstAddr = ff:ff, Src Addr Pan ID = 10, m_addrShortSrcAddr = 00:0d) ns3::SixLowPanIphc (Compression kind: 31499) ns3::Icmpv6NS (( type = 135 (NS) code = 0 target = 2001:1::ff:fe00:d checksum = 33881)) ns3::Icmpv6OptionLinkLayerAddress (( type = 1 length = 1 L2 Address = 00-06-00:0d:00:00:00:00)) ns3::LrWpanMacTrailer ( FCS = 0)
r 0.00278416 /NodeList/13/DeviceList/0/$ns3::LrWpanNetDevice/Mac/MacRx ns3::LrWpanMacHeader (  Frame Type = 1, Sec Enable = 0, Frame Pending = 0, Ack Request = 0, PAN ID Compress = 0, Frame Vers = 1, Dst Addrs Mode = 2, Src Addr Mode = 2, Sequence Num = 60, Dst Addr Pan ID = 10, m_addrShortDstAddr = ff:ff, Src Addr Pan ID = 10, m_addrShortSrcAddr = 00:0d) ns3::SixLowPanIphc (Compression kind: 31499) ns3::Icmpv6NS (( type = 135 (NS) code = 0 target = 2001:1::ff:fe00:d checksum = 33881)) ns3::Icmpv6OptionLinkLayerAddress (( type = 1 length = 1 L2 Address = 00-06-00:0d:00:00:00:00)) ns3::LrWpanMacTrailer ( FCS = 0)
r 0.00278416 /NodeList/17/DeviceList/0/$ns3::LrWpanNetDevice/Mac/MacRx ns3::LrWpanMacHeader (  Frame Type = 1, Sec Enable = 0, Frame Pending = 0, Ack Request = 0, PAN ID Compress = 0, Frame Vers = 1, Dst Addrs Mode = 2, Src Addr Mode = 2, Sequence Num = 60, Dst Addr Pan ID = 10, m_addrShortDstAddr = ff:ff, Src Addr Pan ID = 10, m_addrShortSrcAddr = 00:0d) ns3::SixLowPanIphc (Compression kind: 31499) ns3::Icmpv6NS (( type = 135 (NS) code = 0 target = 2001:1::ff:fe00:d checksum = 33881)) ns3::Icmpv6OptionLinkLayerAddress (( type = 1 length = 1 L2 Address = 00-06-00:0d:00:00:00:00)) ns3::LrWpanMacTrailer ( FCS = 0)
r 0.00278416 /NodeList/27/DeviceList/0/$ns3::LrWpanNetDevice/Mac/MacRx ns3::LrWpanMacHeader (  Frame Type = 1, Sec Enable = 0, Frame Pending = 0, Ack Request = 0, PAN ID Compress = 0, Frame Vers = 1, Dst Addrs Mode = 2, Src Addr Mode = 2, Sequence Num = 113, Dst Addr Pan ID = 10, m_addrShortDstAddr = ff:ff, Src Addr Pan ID = 10, m_addrShortSrcAddr = 00:21) ns3::SixLowPanIphc (Compression kind: 31499) ns3::Icmpv6NS (( type = 135 (NS) code = 0 target = 2001:1::ff:fe00:21 checksum = 23641)) ns3::Icmpv6OptionLinkLayerAddress (( type = 1 length = 1 L2 Address = 00-06-00:21:00:00:00:00)) ns3::LrWpanMacTrailer ( FCS = 0)
r 0.00278416 /NodeList/31/DeviceList/0/$ns3::LrWpanNetDevice/Mac/MacRx ns3::LrWpanMacHeader (  Frame Type = 1, Sec Enable = 0, Frame Pending = 0, Ack Request = 0, PAN ID Compress = 0, Frame Vers = 1, Dst Addrs Mode = 2, Src Addr Mode = 2, Sequence Num = 113, Dst Addr Pan ID = 10, m_addrShortDstAddr = ff:ff, Src Addr Pan ID = 10, m_addrShortSrcAddr = 00:21) ns3::SixLowPanIphc (Compression kind: 31499) ns3::Icmpv6NS (( type = 135 (NS) code = 0 target = 2001:1::ff:fe00:21 checksum = 23641)) ns3::Icmpv6OptionLinkLayerAddress (( type = 1 length = 1 L2 Address = 00-06-00:21:00:00:00:00)) ns3::LrWpanMacTrailer ( FCS = 0)
r 0.00278416 /NodeList/33/DeviceList/0/$ns3::LrWpanNetDevice/Mac/MacRx ns3::LrWpanMacHeader (  Frame Type = 1, Sec Enable = 0, Frame Pending = 0, Ack Request = 0, PAN ID Compress = 0, Frame Vers = 1, Dst Addrs Mode = 2, Src Addr Mode = 2, Sequence Num = 113, Dst Addr Pan ID = 10, m_addrShortDstAddr = ff:ff, Src Addr Pan ID = 10, m_addrShortSrcAddr = 00:21) ns3::SixLowPanIphc (Compression kind: 31499) ns3::Icmpv6NS (( type = 135 (NS) code = 0 target = 2001:1::ff:fe00:21 checksum = 23641)) ns3::Icmpv6OptionLinkLayerAddress (( type = 1 length = 1 L2 Address = 00-06-00:21:00:00:00:00)) ns3::LrWpanMacTrailer ( FCS = 0)
r 0.00278416 /NodeList/37/DeviceList/0/$ns3::LrWpanNetDevice/Mac/MacRx ns3::LrWpanMacHeader (  Frame Type = 1, Sec Enable = 0, Frame Pending = 0, Ack Request = 0, PAN ID Compress = 0, Frame Vers = 1, Dst Addrs Mode = 2, Src Addr Mode = 2, Sequence Num = 113, Dst Addr Pan ID = 10, m_addrShortDstAddr = ff:ff, Src Addr Pan ID = 10, m_addrShortSrcAddr = 00:21) ns3::SixLowPanIphc (Compression kind: 31499) ns3::Icmpv6NS (( type = 135 (NS) code = 0 target = 2001:1::ff:fe00:21 checksum = 23641)) ns3::Icmpv6OptionLinkLayerAddress (( type = 1 length = 1 L2 Address = 00-06-00:21:00:00:00:00)) ns3::LrWpanMacTrailer ( FCS = 0)
r 0.00278423 /NodeList/6/DeviceList/0/$ns3::LrWpanNetDevice/Mac/MacRx ns3::LrWpanMacHeader (  Frame Type = 1, Sec Enable = 0, Frame Pending = 0, Ack Request = 0, PAN ID Compress = 0, Frame Vers = 1, Dst Addrs Mode = 2, Src Addr Mode = 2, Sequence Num = 60, Dst Addr Pan ID = 10, m_addrShortDstAddr = ff:ff, Src Addr Pan ID = 10, m_addrShortSrcAddr = 00:0d) ns3::SixLowPanIphc (Compression kind: 31499) ns3::Icmpv6NS (( type = 135 (NS) code = 0 target = 2001:1::ff:fe00:d checksum = 33881)) ns3::Icmpv6OptionLinkLayerAddress (( type = 1 length = 1 L2 Address = 00-06-00:0d:00:00:00:00)) ns3::LrWpanMacTrailer ( FCS = 0)
r 0.00278423 /NodeList/8/DeviceList/0/$ns3::LrWpanNetDevice/Mac/MacRx ns3::LrWpanMacHeader (  Frame Type = 1, Sec Enable = 0, Frame Pending = 0, Ack Request = 0, PAN ID Compress = 0, Frame Vers = 1, Dst Addrs Mode = 2, Src Addr Mode = 2, Sequence Num = 60, Dst Addr Pan ID = 10, m_addrShortDstAddr = ff:ff, Src Addr Pan ID = 10, m_addrShortSrcAddr = 00:0d) ns3::SixLowPanIphc (Compression kind: 31499) ns3::Icmpv6NS (( type = 135 (NS) code = 0 target = 2001:1::ff:fe00:d checksum = 33881)) ns3::Icmpv6OptionLinkLayerAddress (( type = 1 length = 1 L2 Address = 00-06-00:0d:00:00:00:00)) ns3::LrWpanMacTrailer ( FCS = 0)
r 0.00278423 /NodeList/16/DeviceList/0/$ns3::LrWpanNetDevice/Mac/MacRx ns3::LrWpanMacHeader (  Frame Type = 1, Sec Enable = 0, Frame Pending = 0, Ack Request = 0, PAN ID Compress = 0, Frame Vers = 1, Dst Addrs Mode = 2, Src Addr Mode = 2, Sequence Num = 60, Dst Addr Pan ID = 10, m_addrShortDstAddr = ff:ff, Src Addr Pan ID = 10, m_addrShortSrcAddr = 00:0d) ns3::SixLowPanIphc (Compression kind: 31499) ns3::Icmpv6NS (( type = 135 (NS) code = 0 target = 2001:1::ff:fe00:d checksum = 33881)) ns3::Icmpv6OptionLinkLayerAddress (( type = 1 length = 1 L2 Address = 00-06-00:0d:00:00:00:00)) ns3::LrWpanMacTrailer ( FCS = 0)
r 0.00278423 /NodeList/18/DeviceList/0/$ns3::LrWpanNetDevice/Mac/MacRx ns3::LrWpanMacHeader (  Frame Type = 1, Sec Enable = 0, Frame Pending = 0, Ack Request = 0, PAN ID Compress = 0, Frame Vers = 1, Dst Addrs Mode = 2, Src Addr Mode = 2, Sequence Num = 60, Dst Addr Pan ID = 10, m_addrShortDstAddr = ff:ff, Src Addr Pan ID = 10, m_addrShortSrcAddr = 00:0d) ns3::SixLowPanIphc (Compression kind: 31499) ns3::Icmpv6NS (( type = 135 (NS) code = 0 target = 2001:1::ff:fe00:d checksum = 33881)) ns3::Icmpv6OptionLinkLayerAddress (( type = 1 length = 1 L2 Address = 00-06-00:0d:00:00:00:00)) ns3::LrWpanMacTrailer ( FCS = 0)